   3   3   1   0
  0.7845083E+02  0.3310000E-09  0.3310000E-09  0.2480460E-08  0.5000000E-15
  1.000000000000000E-004
  CAR 
 VSe2                                    
      7.92479111    -43.99036108  301     -2.44052977      1.00000000
    -43.990  0.0000E+00  0.0000E+00  0.0000E+00  0.0000E+00
    -43.817  0.0000E+00  0.0000E+00  0.0000E+00  0.0000E+00
    -43.644  0.0000E+00  0.0000E+00  0.0000E+00  0.0000E+00
    -43.471  0.0000E+00  0.0000E+00  0.0000E+00  0.0000E+00
    -43.298  0.0000E+00  0.0000E+00  0.0000E+00  0.0000E+00
    -43.125  0.0000E+00  0.0000E+00  0.0000E+00  0.0000E+00
    -42.952  0.0000E+00  0.0000E+00  0.0000E+00  0.0000E+00
    -42.779  0.0000E+00  0.0000E+00  0.0000E+00  0.0000E+00
    -42.606  0.0000E+00  0.0000E+00  0.0000E+00  0.0000E+00
    -42.433  0.0000E+00  0.0000E+00  0.0000E+00  0.0000E+00
    -42.260  0.0000E+00  0.0000E+00  0.0000E+00  0.0000E+00
    -42.087  0.0000E+00  0.0000E+00  0.0000E+00  0.0000E+00
    -41.914  0.5079E-15  0.0000E+00  0.8789E-16  0.0000E+00
    -41.741  0.1353E-02  0.0000E+00  0.2342E-03  0.0000E+00
    -41.568  0.6647E+01  0.0000E+00  0.1150E+01  0.0000E+00
    -41.395  0.1048E+02  0.0000E+00  0.2963E+01  0.0000E+00
    -41.222  0.2109E+00  0.0000E+00  0.3000E+01  0.0000E+00
    -41.049  0.0000E+00  0.0000E+00  0.3000E+01  0.0000E+00
    -40.875  0.0000E+00  0.0000E+00  0.3000E+01  0.0000E+00
    -40.702  0.0000E+00  0.0000E+00  0.3000E+01  0.0000E+00
    -40.529  0.0000E+00  0.0000E+00  0.3000E+01  0.0000E+00
    -40.356  0.0000E+00  0.0000E+00  0.3000E+01  0.0000E+00
    -40.183  0.0000E+00  0.0000E+00  0.3000E+01  0.0000E+00
    -40.010  0.0000E+00  0.0000E+00  0.3000E+01  0.0000E+00
    -39.837  0.0000E+00  0.0000E+00  0.3000E+01  0.0000E+00
    -39.664  0.0000E+00  0.4901E-12  0.3000E+01  0.8480E-13
    -39.491  0.0000E+00  0.2125E-01  0.3000E+01  0.3677E-02
    -39.318  0.0000E+00  0.8704E+01  0.3000E+01  0.1510E+01
    -39.145  0.0000E+00  0.2832E+01  0.3000E+01  0.2000E+01
    -38.972  0.0000E+00  0.8407E-01  0.3000E+01  0.2015E+01
    -38.799  0.0000E+00  0.5667E+01  0.3000E+01  0.2995E+01
    -38.626  0.0000E+00  0.2770E-01  0.3000E+01  0.3000E+01
    -38.453  0.0000E+00  0.0000E+00  0.3000E+01  0.3000E+01
    -38.280  0.0000E+00  0.0000E+00  0.3000E+01  0.3000E+01
    -38.107  0.0000E+00  0.0000E+00  0.3000E+01  0.3000E+01
    -37.934  0.0000E+00  0.0000E+00  0.3000E+01  0.3000E+01
    -37.761  0.0000E+00  0.0000E+00  0.3000E+01  0.3000E+01
    -37.587  0.0000E+00  0.0000E+00  0.3000E+01  0.3000E+01
    -37.414  0.0000E+00  0.0000E+00  0.3000E+01  0.3000E+01
    -37.241  0.0000E+00  0.0000E+00  0.3000E+01  0.3000E+01
    -37.068  0.0000E+00  0.0000E+00  0.3000E+01  0.3000E+01
    -36.895  0.0000E+00  0.0000E+00  0.3000E+01  0.3000E+01
    -36.722  0.0000E+00  0.0000E+00  0.3000E+01  0.3000E+01
    -36.549  0.0000E+00  0.0000E+00  0.3000E+01  0.3000E+01
    -36.376  0.0000E+00  0.0000E+00  0.3000E+01  0.3000E+01
    -36.203  0.0000E+00  0.0000E+00  0.3000E+01  0.3000E+01
    -36.030  0.0000E+00  0.0000E+00  0.3000E+01  0.3000E+01
    -35.857  0.0000E+00  0.0000E+00  0.3000E+01  0.3000E+01
    -35.684  0.0000E+00  0.0000E+00  0.3000E+01  0.3000E+01
    -35.511  0.0000E+00  0.0000E+00  0.3000E+01  0.3000E+01
    -35.338  0.0000E+00  0.0000E+00  0.3000E+01  0.3000E+01
    -35.165  0.0000E+00  0.0000E+00  0.3000E+01  0.3000E+01
    -34.992  0.0000E+00  0.0000E+00  0.3000E+01  0.3000E+01
    -34.819  0.0000E+00  0.0000E+00  0.3000E+01  0.3000E+01
    -34.646  0.0000E+00  0.0000E+00  0.3000E+01  0.3000E+01
    -34.473  0.0000E+00  0.0000E+00  0.3000E+01  0.3000E+01
    -34.300  0.0000E+00  0.0000E+00  0.3000E+01  0.3000E+01
    -34.126  0.0000E+00  0.0000E+00  0.3000E+01  0.3000E+01
    -33.953  0.0000E+00  0.0000E+00  0.3000E+01  0.3000E+01
    -33.780  0.0000E+00  0.0000E+00  0.3000E+01  0.3000E+01
    -33.607  0.0000E+00  0.0000E+00  0.3000E+01  0.3000E+01
    -33.434  0.0000E+00  0.0000E+00  0.3000E+01  0.3000E+01
    -33.261  0.0000E+00  0.0000E+00  0.3000E+01  0.3000E+01
    -33.088  0.0000E+00  0.0000E+00  0.3000E+01  0.3000E+01
    -32.915  0.0000E+00  0.0000E+00  0.3000E+01  0.3000E+01
    -32.742  0.0000E+00  0.0000E+00  0.3000E+01  0.3000E+01
    -32.569  0.0000E+00  0.0000E+00  0.3000E+01  0.3000E+01
    -32.396  0.0000E+00  0.0000E+00  0.3000E+01  0.3000E+01
    -32.223  0.0000E+00  0.0000E+00  0.3000E+01  0.3000E+01
    -32.050  0.0000E+00  0.0000E+00  0.3000E+01  0.3000E+01
    -31.877  0.0000E+00  0.0000E+00  0.3000E+01  0.3000E+01
    -31.704  0.0000E+00  0.0000E+00  0.3000E+01  0.3000E+01
    -31.531  0.0000E+00  0.0000E+00  0.3000E+01  0.3000E+01
    -31.358  0.0000E+00  0.0000E+00  0.3000E+01  0.3000E+01
    -31.185  0.0000E+00  0.0000E+00  0.3000E+01  0.3000E+01
    -31.012  0.0000E+00  0.0000E+00  0.3000E+01  0.3000E+01
    -30.839  0.0000E+00  0.0000E+00  0.3000E+01  0.3000E+01
    -30.665  0.0000E+00  0.0000E+00  0.3000E+01  0.3000E+01
    -30.492  0.0000E+00  0.0000E+00  0.3000E+01  0.3000E+01
    -30.319  0.0000E+00  0.0000E+00  0.3000E+01  0.3000E+01
    -30.146  0.0000E+00  0.0000E+00  0.3000E+01  0.3000E+01
    -29.973  0.0000E+00  0.0000E+00  0.3000E+01  0.3000E+01
    -29.800  0.0000E+00  0.0000E+00  0.3000E+01  0.3000E+01
    -29.627  0.0000E+00  0.0000E+00  0.3000E+01  0.3000E+01
    -29.454  0.0000E+00  0.0000E+00  0.3000E+01  0.3000E+01
    -29.281  0.0000E+00  0.0000E+00  0.3000E+01  0.3000E+01
    -29.108  0.0000E+00  0.0000E+00  0.3000E+01  0.3000E+01
    -28.935  0.0000E+00  0.0000E+00  0.3000E+01  0.3000E+01
    -28.762  0.0000E+00  0.0000E+00  0.3000E+01  0.3000E+01
    -28.589  0.0000E+00  0.0000E+00  0.3000E+01  0.3000E+01
    -28.416  0.0000E+00  0.0000E+00  0.3000E+01  0.3000E+01
    -28.243  0.0000E+00  0.0000E+00  0.3000E+01  0.3000E+01
    -28.070  0.0000E+00  0.0000E+00  0.3000E+01  0.3000E+01
    -27.897  0.0000E+00  0.0000E+00  0.3000E+01  0.3000E+01
    -27.724  0.0000E+00  0.0000E+00  0.3000E+01  0.3000E+01
    -27.551  0.0000E+00  0.0000E+00  0.3000E+01  0.3000E+01
    -27.378  0.0000E+00  0.0000E+00  0.3000E+01  0.3000E+01
    -27.204  0.0000E+00  0.0000E+00  0.3000E+01  0.3000E+01
    -27.031  0.0000E+00  0.0000E+00  0.3000E+01  0.3000E+01
    -26.858  0.0000E+00  0.0000E+00  0.3000E+01  0.3000E+01
    -26.685  0.0000E+00  0.0000E+00  0.3000E+01  0.3000E+01
    -26.512  0.0000E+00  0.0000E+00  0.3000E+01  0.3000E+01
    -26.339  0.0000E+00  0.0000E+00  0.3000E+01  0.3000E+01
    -26.166  0.0000E+00  0.0000E+00  0.3000E+01  0.3000E+01
    -25.993  0.0000E+00  0.0000E+00  0.3000E+01  0.3000E+01
    -25.820  0.0000E+00  0.0000E+00  0.3000E+01  0.3000E+01
    -25.647  0.0000E+00  0.0000E+00  0.3000E+01  0.3000E+01
    -25.474  0.0000E+00  0.0000E+00  0.3000E+01  0.3000E+01
    -25.301  0.0000E+00  0.0000E+00  0.3000E+01  0.3000E+01
    -25.128  0.0000E+00  0.0000E+00  0.3000E+01  0.3000E+01
    -24.955  0.0000E+00  0.0000E+00  0.3000E+01  0.3000E+01
    -24.782  0.0000E+00  0.0000E+00  0.3000E+01  0.3000E+01
    -24.609  0.0000E+00  0.0000E+00  0.3000E+01  0.3000E+01
    -24.436  0.0000E+00  0.0000E+00  0.3000E+01  0.3000E+01
    -24.263  0.0000E+00  0.0000E+00  0.3000E+01  0.3000E+01
    -24.090  0.0000E+00  0.0000E+00  0.3000E+01  0.3000E+01
    -23.917  0.0000E+00  0.0000E+00  0.3000E+01  0.3000E+01
    -23.743  0.0000E+00  0.0000E+00  0.3000E+01  0.3000E+01
    -23.570  0.0000E+00  0.0000E+00  0.3000E+01  0.3000E+01
    -23.397  0.0000E+00  0.0000E+00  0.3000E+01  0.3000E+01
    -23.224  0.0000E+00  0.0000E+00  0.3000E+01  0.3000E+01
    -23.051  0.0000E+00  0.0000E+00  0.3000E+01  0.3000E+01
    -22.878  0.0000E+00  0.0000E+00  0.3000E+01  0.3000E+01
    -22.705  0.0000E+00  0.0000E+00  0.3000E+01  0.3000E+01
    -22.532  0.0000E+00  0.0000E+00  0.3000E+01  0.3000E+01
    -22.359  0.0000E+00  0.0000E+00  0.3000E+01  0.3000E+01
    -22.186  0.0000E+00  0.0000E+00  0.3000E+01  0.3000E+01
    -22.013  0.0000E+00  0.0000E+00  0.3000E+01  0.3000E+01
    -21.840  0.0000E+00  0.0000E+00  0.3000E+01  0.3000E+01
    -21.667  0.0000E+00  0.0000E+00  0.3000E+01  0.3000E+01
    -21.494  0.0000E+00  0.0000E+00  0.3000E+01  0.3000E+01
    -21.321  0.0000E+00  0.0000E+00  0.3000E+01  0.3000E+01
    -21.148  0.0000E+00  0.0000E+00  0.3000E+01  0.3000E+01
    -20.975  0.0000E+00  0.0000E+00  0.3000E+01  0.3000E+01
    -20.802  0.0000E+00  0.0000E+00  0.3000E+01  0.3000E+01
    -20.629  0.0000E+00  0.0000E+00  0.3000E+01  0.3000E+01
    -20.455  0.0000E+00  0.0000E+00  0.3000E+01  0.3000E+01
    -20.282  0.0000E+00  0.0000E+00  0.3000E+01  0.3000E+01
    -20.109  0.0000E+00  0.0000E+00  0.3000E+01  0.3000E+01
    -19.936  0.0000E+00  0.0000E+00  0.3000E+01  0.3000E+01
    -19.763  0.0000E+00  0.0000E+00  0.3000E+01  0.3000E+01
    -19.590  0.0000E+00  0.0000E+00  0.3000E+01  0.3000E+01
    -19.417  0.0000E+00  0.0000E+00  0.3000E+01  0.3000E+01
    -19.244  0.0000E+00  0.0000E+00  0.3000E+01  0.3000E+01
    -19.071  0.0000E+00  0.0000E+00  0.3000E+01  0.3000E+01
    -18.898  0.0000E+00  0.0000E+00  0.3000E+01  0.3000E+01
    -18.725  0.0000E+00  0.0000E+00  0.3000E+01  0.3000E+01
    -18.552  0.0000E+00  0.0000E+00  0.3000E+01  0.3000E+01
    -18.379  0.0000E+00  0.0000E+00  0.3000E+01  0.3000E+01
    -18.206  0.0000E+00  0.0000E+00  0.3000E+01  0.3000E+01
    -18.033  0.0000E+00  0.0000E+00  0.3000E+01  0.3000E+01
    -17.860  0.0000E+00  0.0000E+00  0.3000E+01  0.3000E+01
    -17.687  0.0000E+00  0.0000E+00  0.3000E+01  0.3000E+01
    -17.514  0.0000E+00  0.0000E+00  0.3000E+01  0.3000E+01
    -17.341  0.0000E+00  0.0000E+00  0.3000E+01  0.3000E+01
    -17.168  0.0000E+00  0.1550E-14  0.3000E+01  0.3000E+01
    -16.994  0.7297E-08  0.6759E-03  0.3000E+01  0.3000E+01
    -16.821  0.1049E+00  0.6015E+00  0.3018E+01  0.3104E+01
    -16.648  0.7621E+00  0.5021E+00  0.3150E+01  0.3191E+01
    -16.475  0.3926E+00  0.3421E+00  0.3218E+01  0.3250E+01
    -16.302  0.3088E+00  0.2911E+00  0.3271E+01  0.3301E+01
    -16.129  0.2740E+00  0.2683E+00  0.3319E+01  0.3347E+01
    -15.956  0.2584E+00  0.2618E+00  0.3364E+01  0.3392E+01
    -15.783  0.2573E+00  0.2699E+00  0.3408E+01  0.3439E+01
    -15.610  0.2711E+00  0.3045E+00  0.3455E+01  0.3492E+01
    -15.437  0.3201E+00  0.7190E+00  0.3510E+01  0.3616E+01
    -15.264  0.1650E+01  0.1597E+01  0.3796E+01  0.3893E+01
    -15.091  0.2041E+01  0.1199E+01  0.4149E+01  0.4100E+01
    -14.918  0.5523E+00  0.5095E+00  0.4245E+01  0.4188E+01
    -14.745  0.2906E+00  0.3399E+00  0.4295E+01  0.4247E+01
    -14.572  0.2649E+00  0.2865E+00  0.4341E+01  0.4297E+01
    -14.399  0.2551E+00  0.2617E+00  0.4385E+01  0.4342E+01
    -14.226  0.2590E+00  0.2522E+00  0.4430E+01  0.4385E+01
    -14.053  0.2822E+00  0.2559E+00  0.4479E+01  0.4430E+01
    -13.880  0.4126E+00  0.2781E+00  0.4550E+01  0.4478E+01
    -13.707  0.1459E+01  0.3921E+00  0.4803E+01  0.4546E+01
    -13.533  0.1134E+01  0.1431E+01  0.4999E+01  0.4793E+01
    -13.360  0.6999E-02  0.1181E+01  0.5000E+01  0.4998E+01
    -13.187  0.0000E+00  0.1292E-01  0.5000E+01  0.5000E+01
    -13.014  0.0000E+00  0.0000E+00  0.5000E+01  0.5000E+01
    -12.841  0.0000E+00  0.0000E+00  0.5000E+01  0.5000E+01
    -12.668  0.0000E+00  0.0000E+00  0.5000E+01  0.5000E+01
    -12.495  0.0000E+00  0.0000E+00  0.5000E+01  0.5000E+01
    -12.322  0.0000E+00  0.0000E+00  0.5000E+01  0.5000E+01
    -12.149  0.0000E+00  0.0000E+00  0.5000E+01  0.5000E+01
    -11.976  0.0000E+00  0.0000E+00  0.5000E+01  0.5000E+01
    -11.803  0.0000E+00  0.0000E+00  0.5000E+01  0.5000E+01
    -11.630  0.0000E+00  0.0000E+00  0.5000E+01  0.5000E+01
    -11.457  0.0000E+00  0.0000E+00  0.5000E+01  0.5000E+01
    -11.284  0.0000E+00  0.0000E+00  0.5000E+01  0.5000E+01
    -11.111  0.0000E+00  0.0000E+00  0.5000E+01  0.5000E+01
    -10.938  0.0000E+00  0.0000E+00  0.5000E+01  0.5000E+01
    -10.765  0.0000E+00  0.0000E+00  0.5000E+01  0.5000E+01
    -10.592  0.0000E+00  0.0000E+00  0.5000E+01  0.5000E+01
    -10.419  0.0000E+00  0.0000E+00  0.5000E+01  0.5000E+01
    -10.246  0.0000E+00  0.0000E+00  0.5000E+01  0.5000E+01
    -10.072  0.0000E+00  0.0000E+00  0.5000E+01  0.5000E+01
     -9.899  0.0000E+00  0.0000E+00  0.5000E+01  0.5000E+01
     -9.726  0.0000E+00  0.0000E+00  0.5000E+01  0.5000E+01
     -9.553  0.0000E+00  0.0000E+00  0.5000E+01  0.5000E+01
     -9.380  0.0000E+00  0.0000E+00  0.5000E+01  0.5000E+01
     -9.207  0.0000E+00  0.0000E+00  0.5000E+01  0.5000E+01
     -9.034  0.0000E+00  0.0000E+00  0.5000E+01  0.5000E+01
     -8.861  0.0000E+00  0.0000E+00  0.5000E+01  0.5000E+01
     -8.688  0.1069E-16  0.0000E+00  0.5000E+01  0.5000E+01
     -8.515  0.1000E-03  0.0000E+00  0.5000E+01  0.5000E+01
     -8.342  0.5672E+00  0.8260E-10  0.5098E+01  0.5000E+01
     -8.169  0.6355E+00  0.3429E-01  0.5208E+01  0.5006E+01
     -7.996  0.5466E+00  0.8482E+00  0.5303E+01  0.5153E+01
     -7.823  0.9871E+00  0.4665E+00  0.5474E+01  0.5233E+01
     -7.650  0.1274E+01  0.3513E+00  0.5694E+01  0.5294E+01
     -7.477  0.6027E+00  0.3463E+00  0.5798E+01  0.5354E+01
     -7.304  0.3903E+00  0.1037E+01  0.5866E+01  0.5534E+01
     -7.131  0.3749E+00  0.1032E+01  0.5931E+01  0.5712E+01
     -6.958  0.3834E+00  0.4677E+00  0.5997E+01  0.5793E+01
     -6.785  0.5078E+00  0.4063E+00  0.6085E+01  0.5863E+01
     -6.611  0.6540E+00  0.6767E+00  0.6198E+01  0.5981E+01
     -6.438  0.6316E+00  0.6641E+00  0.6307E+01  0.6095E+01
     -6.265  0.1232E+01  0.2194E+00  0.6521E+01  0.6133E+01
     -6.092  0.1325E+01  0.6921E+00  0.6750E+01  0.6253E+01
     -5.919  0.3797E+00  0.1501E+01  0.6816E+01  0.6513E+01
     -5.746  0.2064E+01  0.9843E+00  0.7173E+01  0.6683E+01
     -5.573  0.1275E+01  0.5082E+00  0.7394E+01  0.6771E+01
     -5.400  0.1051E+01  0.1076E+01  0.7575E+01  0.6957E+01
     -5.227  0.1168E+01  0.1963E+01  0.7778E+01  0.7297E+01
     -5.054  0.1730E+01  0.8335E+00  0.8077E+01  0.7441E+01
     -4.881  0.2093E+01  0.1196E+01  0.8439E+01  0.7648E+01
     -4.708  0.1073E+01  0.8770E+00  0.8625E+01  0.7800E+01
     -4.535  0.7493E+00  0.7206E+00  0.8754E+01  0.7925E+01
     -4.362  0.7959E+00  0.1241E+01  0.8892E+01  0.8140E+01
     -4.189  0.6299E+00  0.1229E+01  0.9001E+01  0.8352E+01
     -4.016  0.1723E+01  0.1195E+01  0.9299E+01  0.8559E+01
     -3.843  0.4100E+01  0.1484E+01  0.1001E+02  0.8816E+01
     -3.670  0.3562E+01  0.1708E+01  0.1063E+02  0.9111E+01
     -3.497  0.1686E+01  0.4916E+00  0.1092E+02  0.9197E+01
     -3.323  0.5410E+00  0.4735E+00  0.1101E+02  0.9278E+01
     -3.150  0.3442E+01  0.4642E+00  0.1161E+02  0.9359E+01
     -2.977  0.1642E+01  0.4582E+00  0.1189E+02  0.9438E+01
     -2.804  0.2632E+01  0.4919E+00  0.1235E+02  0.9523E+01
     -2.631  0.2650E+01  0.8823E+00  0.1280E+02  0.9676E+01
     -2.458  0.1255E+01  0.1397E+01  0.1302E+02  0.9918E+01
     -2.285  0.3486E+01  0.1336E+01  0.1362E+02  0.1015E+02
     -2.112  0.1762E+01  0.6535E+00  0.1393E+02  0.1026E+02
     -1.939  0.9495E+00  0.8682E+00  0.1409E+02  0.1041E+02
     -1.766  0.1742E+01  0.8887E+00  0.1440E+02  0.1057E+02
     -1.593  0.4434E+00  0.3433E+01  0.1447E+02  0.1116E+02
     -1.420  0.3357E+00  0.1832E+01  0.1453E+02  0.1148E+02
     -1.247  0.3234E+00  0.3496E+00  0.1459E+02  0.1154E+02
     -1.074  0.3202E+00  0.1576E+01  0.1464E+02  0.1181E+02
     -0.901  0.5578E+00  0.1911E+01  0.1474E+02  0.1214E+02
     -0.728  0.2073E+01  0.1912E+01  0.1510E+02  0.1247E+02
     -0.555  0.2028E+01  0.6528E+00  0.1545E+02  0.1259E+02
     -0.382  0.1403E+01  0.8817E+00  0.1569E+02  0.1274E+02
     -0.209  0.7199E+00  0.9770E+00  0.1581E+02  0.1291E+02
     -0.036  0.5653E+00  0.2844E+01  0.1591E+02  0.1340E+02
      0.138  0.9659E+00  0.1865E+01  0.1608E+02  0.1372E+02
      0.311  0.1103E+01  0.6910E+00  0.1627E+02  0.1384E+02
      0.484  0.2306E+01  0.6664E+00  0.1667E+02  0.1396E+02
      0.657  0.4609E+00  0.1795E+01  0.1675E+02  0.1427E+02
      0.830  0.8307E+00  0.2222E+01  0.1689E+02  0.1465E+02
      1.003  0.7089E+00  0.6876E+00  0.1702E+02  0.1477E+02
      1.176  0.5713E+00  0.1326E+01  0.1712E+02  0.1500E+02
      1.349  0.5973E+00  0.4739E+00  0.1722E+02  0.1508E+02
      1.522  0.1828E+00  0.2742E+01  0.1725E+02  0.1556E+02
      1.695  0.1547E+00  0.2811E+01  0.1728E+02  0.1604E+02
      1.868  0.1452E+00  0.2238E+01  0.1730E+02  0.1643E+02
      2.041  0.3917E+00  0.6152E+00  0.1737E+02  0.1654E+02
      2.214  0.4906E+00  0.5603E+00  0.1745E+02  0.1663E+02
      2.387  0.1383E+01  0.1815E+01  0.1769E+02  0.1695E+02
      2.560  0.1532E+01  0.1382E+01  0.1796E+02  0.1719E+02
      2.733  0.9967E+00  0.1419E+01  0.1813E+02  0.1743E+02
      2.906  0.8795E+00  0.1197E+01  0.1828E+02  0.1764E+02
      3.079  0.5597E+00  0.6161E+00  0.1838E+02  0.1775E+02
      3.252  0.6241E+00  0.5702E+00  0.1849E+02  0.1784E+02
      3.425  0.6604E+00  0.1465E+01  0.1860E+02  0.1810E+02
      3.599  0.1456E+01  0.1095E+01  0.1885E+02  0.1829E+02
      3.772  0.8161E+00  0.9665E+00  0.1900E+02  0.1845E+02
      3.945  0.1036E+01  0.9324E+00  0.1918E+02  0.1862E+02
      4.118  0.8770E+00  0.6817E+00  0.1933E+02  0.1873E+02
      4.291  0.1167E+01  0.5621E+00  0.1953E+02  0.1883E+02
      4.464  0.1028E+01  0.5065E+00  0.1971E+02  0.1892E+02
      4.637  0.7565E+00  0.1372E+01  0.1984E+02  0.1916E+02
      4.810  0.8085E+00  0.1764E+01  0.1998E+02  0.1946E+02
      4.983  0.1270E+00  0.7792E+00  0.2000E+02  0.1960E+02
      5.156  0.5876E-03  0.6991E+00  0.2000E+02  0.1972E+02
      5.329  0.0000E+00  0.5745E+00  0.2000E+02  0.1982E+02
      5.502  0.0000E+00  0.9474E+00  0.2000E+02  0.1998E+02
      5.675  0.0000E+00  0.1090E+00  0.2000E+02  0.2000E+02
      5.848  0.0000E+00  0.4540E-04  0.2000E+02  0.2000E+02
      6.021  0.0000E+00  0.0000E+00  0.2000E+02  0.2000E+02
      6.194  0.0000E+00  0.0000E+00  0.2000E+02  0.2000E+02
      6.367  0.0000E+00  0.0000E+00  0.2000E+02  0.2000E+02
      6.540  0.0000E+00  0.0000E+00  0.2000E+02  0.2000E+02
      6.713  0.0000E+00  0.0000E+00  0.2000E+02  0.2000E+02
      6.886  0.0000E+00  0.0000E+00  0.2000E+02  0.2000E+02
      7.060  0.0000E+00  0.0000E+00  0.2000E+02  0.2000E+02
      7.233  0.0000E+00  0.0000E+00  0.2000E+02  0.2000E+02
      7.406  0.0000E+00  0.0000E+00  0.2000E+02  0.2000E+02
      7.579  0.0000E+00  0.0000E+00  0.2000E+02  0.2000E+02
      7.752  0.0000E+00  0.0000E+00  0.2000E+02  0.2000E+02
      7.925  0.0000E+00  0.0000E+00  0.2000E+02  0.2000E+02
      7.92479111    -43.99036108  301     -2.44052977      1.00000000
    -43.990  0.0000E+00  0.0000E+00  0.0000E+00  0.0000E+00  0.0000E+00  0.0000E+00  0.0000E+00  0.0000E+00  0.0000E+00  0.0000E+00  0.0000E+00  0.0000E+00  0.0000E+00  0.0000E+00  0.0000E+00  0.0000E+00  0.0000E+00  0.0000E+00
    -43.817  0.0000E+00  0.0000E+00  0.0000E+00  0.0000E+00  0.0000E+00  0.0000E+00  0.0000E+00  0.0000E+00  0.0000E+00  0.0000E+00  0.0000E+00  0.0000E+00  0.0000E+00  0.0000E+00  0.0000E+00  0.0000E+00  0.0000E+00  0.0000E+00
    -43.644  0.0000E+00  0.0000E+00  0.0000E+00  0.0000E+00  0.0000E+00  0.0000E+00  0.0000E+00  0.0000E+00  0.0000E+00  0.0000E+00  0.0000E+00  0.0000E+00  0.0000E+00  0.0000E+00  0.0000E+00  0.0000E+00  0.0000E+00  0.0000E+00
    -43.471  0.0000E+00  0.0000E+00  0.0000E+00  0.0000E+00  0.0000E+00  0.0000E+00  0.0000E+00  0.0000E+00  0.0000E+00  0.0000E+00  0.0000E+00  0.0000E+00  0.0000E+00  0.0000E+00  0.0000E+00  0.0000E+00  0.0000E+00  0.0000E+00
    -43.298  0.0000E+00  0.0000E+00  0.0000E+00  0.0000E+00  0.0000E+00  0.0000E+00  0.0000E+00  0.0000E+00  0.0000E+00  0.0000E+00  0.0000E+00  0.0000E+00  0.0000E+00  0.0000E+00  0.0000E+00  0.0000E+00  0.0000E+00  0.0000E+00
    -43.125  0.0000E+00  0.0000E+00  0.0000E+00  0.0000E+00  0.0000E+00  0.0000E+00  0.0000E+00  0.0000E+00  0.0000E+00  0.0000E+00  0.0000E+00  0.0000E+00  0.0000E+00  0.0000E+00  0.0000E+00  0.0000E+00  0.0000E+00  0.0000E+00
    -42.952  0.0000E+00  0.0000E+00  0.0000E+00  0.0000E+00  0.0000E+00  0.0000E+00  0.0000E+00  0.0000E+00  0.0000E+00  0.0000E+00  0.0000E+00  0.0000E+00  0.0000E+00  0.0000E+00  0.0000E+00  0.0000E+00  0.0000E+00  0.0000E+00
    -42.779  0.0000E+00  0.0000E+00  0.0000E+00  0.0000E+00  0.0000E+00  0.0000E+00  0.0000E+00  0.0000E+00  0.0000E+00  0.0000E+00  0.0000E+00  0.0000E+00  0.0000E+00  0.0000E+00  0.0000E+00  0.0000E+00  0.0000E+00  0.0000E+00
    -42.606  0.0000E+00  0.0000E+00  0.0000E+00  0.0000E+00  0.0000E+00  0.0000E+00  0.0000E+00  0.0000E+00  0.0000E+00  0.0000E+00  0.0000E+00  0.0000E+00  0.0000E+00  0.0000E+00  0.0000E+00  0.0000E+00  0.0000E+00  0.0000E+00
    -42.433  0.0000E+00  0.0000E+00  0.0000E+00  0.0000E+00  0.0000E+00  0.0000E+00  0.0000E+00  0.0000E+00  0.0000E+00  0.0000E+00  0.0000E+00  0.0000E+00  0.0000E+00  0.0000E+00  0.0000E+00  0.0000E+00  0.0000E+00  0.0000E+00
    -42.260  0.0000E+00  0.0000E+00  0.0000E+00  0.0000E+00  0.0000E+00  0.0000E+00  0.0000E+00  0.0000E+00  0.0000E+00  0.0000E+00  0.0000E+00  0.0000E+00  0.0000E+00  0.0000E+00  0.0000E+00  0.0000E+00  0.0000E+00  0.0000E+00
    -42.087  0.0000E+00  0.0000E+00  0.0000E+00  0.0000E+00  0.0000E+00  0.0000E+00  0.0000E+00  0.0000E+00  0.0000E+00  0.0000E+00  0.0000E+00  0.0000E+00  0.0000E+00  0.0000E+00  0.0000E+00  0.0000E+00  0.0000E+00  0.0000E+00
    -41.914  0.1212E-21  0.0000E+00  0.3758E-15  0.0000E+00  0.6856E-19  0.0000E+00  0.1254E-15  0.0000E+00  0.2309E-20  0.0000E+00  0.2099E-20  0.0000E+00  0.3718E-22  0.0000E+00  0.7041E-21  0.0000E+00  0.9848E-21  0.0000E+00
    -41.741  0.8166E-09  0.0000E+00  0.1008E-02  0.0000E+00  0.2277E-06  0.0000E+00  0.3272E-03  0.0000E+00  0.6838E-08  0.0000E+00  0.5510E-08  0.0000E+00  0.2718E-09  0.0000E+00  0.1817E-08  0.0000E+00  0.3672E-08  0.0000E+00
    -41.568  0.1093E-04  0.0000E+00  0.3799E+01  0.0000E+00  0.9952E-02  0.0000E+00  0.2765E+01  0.0000E+00  0.3064E-04  0.0000E+00  0.1797E-04  0.0000E+00  0.3697E-05  0.0000E+00  0.1114E-04  0.0000E+00  0.2126E-04  0.0000E+00
    -41.395  0.4540E-04  0.0000E+00  0.1917E+01  0.0000E+00  0.5503E+01  0.0000E+00  0.2959E+01  0.0000E+00  0.1361E-04  0.0000E+00  0.7296E-05  0.0000E+00  0.1624E-04  0.0000E+00  0.9638E-05  0.0000E+00  0.1390E-04  0.0000E+00
    -41.222  0.1391E-05  0.0000E+00  0.1274E-03  0.0000E+00  0.2087E+00  0.0000E+00  0.6201E-04  0.0000E+00  0.2621E-08  0.0000E+00  0.1871E-07  0.0000E+00  0.5260E-06  0.0000E+00  0.3414E-08  0.0000E+00  0.1326E-08  0.0000E+00
    -41.049  0.0000E+00  0.0000E+00  0.0000E+00  0.0000E+00  0.0000E+00  0.0000E+00  0.0000E+00  0.0000E+00  0.0000E+00  0.0000E+00  0.0000E+00  0.0000E+00  0.0000E+00  0.0000E+00  0.0000E+00  0.0000E+00  0.0000E+00  0.0000E+00
    -40.875  0.0000E+00  0.0000E+00  0.0000E+00  0.0000E+00  0.0000E+00  0.0000E+00  0.0000E+00  0.0000E+00  0.0000E+00  0.0000E+00  0.0000E+00  0.0000E+00  0.0000E+00  0.0000E+00  0.0000E+00  0.0000E+00  0.0000E+00  0.0000E+00
    -40.702  0.0000E+00  0.0000E+00  0.0000E+00  0.0000E+00  0.0000E+00  0.0000E+00  0.0000E+00  0.0000E+00  0.0000E+00  0.0000E+00  0.0000E+00  0.0000E+00  0.0000E+00  0.0000E+00  0.0000E+00  0.0000E+00  0.0000E+00  0.0000E+00
    -40.529  0.0000E+00  0.0000E+00  0.0000E+00  0.0000E+00  0.0000E+00  0.0000E+00  0.0000E+00  0.0000E+00  0.0000E+00  0.0000E+00  0.0000E+00  0.0000E+00  0.0000E+00  0.0000E+00  0.0000E+00  0.0000E+00  0.0000E+00  0.0000E+00
    -40.356  0.0000E+00  0.0000E+00  0.0000E+00  0.0000E+00  0.0000E+00  0.0000E+00  0.0000E+00  0.0000E+00  0.0000E+00  0.0000E+00  0.0000E+00  0.0000E+00  0.0000E+00  0.0000E+00  0.0000E+00  0.0000E+00  0.0000E+00  0.0000E+00
    -40.183  0.0000E+00  0.0000E+00  0.0000E+00  0.0000E+00  0.0000E+00  0.0000E+00  0.0000E+00  0.0000E+00  0.0000E+00  0.0000E+00  0.0000E+00  0.0000E+00  0.0000E+00  0.0000E+00  0.0000E+00  0.0000E+00  0.0000E+00  0.0000E+00
    -40.010  0.0000E+00  0.0000E+00  0.0000E+00  0.0000E+00  0.0000E+00  0.0000E+00  0.0000E+00  0.0000E+00  0.0000E+00  0.0000E+00  0.0000E+00  0.0000E+00  0.0000E+00  0.0000E+00  0.0000E+00  0.0000E+00  0.0000E+00  0.0000E+00
    -39.837  0.0000E+00  0.0000E+00  0.0000E+00  0.0000E+00  0.0000E+00  0.0000E+00  0.0000E+00  0.0000E+00  0.0000E+00  0.0000E+00  0.0000E+00  0.0000E+00  0.0000E+00  0.0000E+00  0.0000E+00  0.0000E+00  0.0000E+00  0.0000E+00
    -39.664  0.0000E+00  0.1800E-18  0.0000E+00  0.3627E-12  0.0000E+00  0.1327E-16  0.0000E+00  0.1205E-12  0.0000E+00  0.3878E-17  0.0000E+00  0.4582E-17  0.0000E+00  0.4198E-19  0.0000E+00  0.1533E-17  0.0000E+00  0.1587E-17
    -39.491  0.0000E+00  0.1855E-07  0.0000E+00  0.1577E-01  0.0000E+00  0.7149E-06  0.0000E+00  0.5188E-02  0.0000E+00  0.1848E-06  0.0000E+00  0.1948E-06  0.0000E+00  0.4834E-08  0.0000E+00  0.6517E-07  0.0000E+00  0.9244E-07
    -39.318  0.0000E+00  0.1720E-04  0.0000E+00  0.4651E+01  0.0000E+00  0.4520E-03  0.0000E+00  0.3956E+01  0.0000E+00  0.5557E-04  0.0000E+00  0.4831E-04  0.0000E+00  0.4627E-05  0.0000E+00  0.3505E-04  0.0000E+00  0.4024E-04
    -39.145  0.0000E+00  0.3478E-05  0.0000E+00  0.1046E+01  0.0000E+00  0.9599E-04  0.0000E+00  0.1761E+01  0.0000E+00  0.9593E-05  0.0000E+00  0.7858E-05  0.0000E+00  0.9600E-06  0.0000E+00  0.1284E-04  0.0000E+00  0.1226E-04
    -38.972  0.0000E+00  0.2246E-05  0.0000E+00  0.1018E-04  0.0000E+00  0.8311E-01  0.0000E+00  0.3719E-05  0.0000E+00  0.1892E-08  0.0000E+00  0.1625E-07  0.0000E+00  0.1493E-06  0.0000E+00  0.2653E-08  0.0000E+00  0.8353E-09
    -38.799  0.0000E+00  0.1368E-03  0.0000E+00  0.4939E-03  0.0000E+00  0.5606E+01  0.0000E+00  0.9567E-04  0.0000E+00  0.1648E-06  0.0000E+00  0.9217E-06  0.0000E+00  0.9400E-05  0.0000E+00  0.1580E-06  0.0000E+00  0.7240E-07
    -38.626  0.0000E+00  0.6145E-06  0.0000E+00  0.1637E-05  0.0000E+00  0.2741E-01  0.0000E+00  0.3677E-06  0.0000E+00  0.8842E-09  0.0000E+00  0.3088E-08  0.0000E+00  0.4353E-07  0.0000E+00  0.5858E-09  0.0000E+00  0.3842E-09
    -38.453  0.0000E+00  0.0000E+00  0.0000E+00  0.0000E+00  0.0000E+00  0.0000E+00  0.0000E+00  0.0000E+00  0.0000E+00  0.0000E+00  0.0000E+00  0.0000E+00  0.0000E+00  0.0000E+00  0.0000E+00  0.0000E+00  0.0000E+00  0.0000E+00
    -38.280  0.0000E+00  0.0000E+00  0.0000E+00  0.0000E+00  0.0000E+00  0.0000E+00  0.0000E+00  0.0000E+00  0.0000E+00  0.0000E+00  0.0000E+00  0.0000E+00  0.0000E+00  0.0000E+00  0.0000E+00  0.0000E+00  0.0000E+00  0.0000E+00
    -38.107  0.0000E+00  0.0000E+00  0.0000E+00  0.0000E+00  0.0000E+00  0.0000E+00  0.0000E+00  0.0000E+00  0.0000E+00  0.0000E+00  0.0000E+00  0.0000E+00  0.0000E+00  0.0000E+00  0.0000E+00  0.0000E+00  0.0000E+00  0.0000E+00
    -37.934  0.0000E+00  0.0000E+00  0.0000E+00  0.0000E+00  0.0000E+00  0.0000E+00  0.0000E+00  0.0000E+00  0.0000E+00  0.0000E+00  0.0000E+00  0.0000E+00  0.0000E+00  0.0000E+00  0.0000E+00  0.0000E+00  0.0000E+00  0.0000E+00
    -37.761  0.0000E+00  0.0000E+00  0.0000E+00  0.0000E+00  0.0000E+00  0.0000E+00  0.0000E+00  0.0000E+00  0.0000E+00  0.0000E+00  0.0000E+00  0.0000E+00  0.0000E+00  0.0000E+00  0.0000E+00  0.0000E+00  0.0000E+00  0.0000E+00
    -37.587  0.0000E+00  0.0000E+00  0.0000E+00  0.0000E+00  0.0000E+00  0.0000E+00  0.0000E+00  0.0000E+00  0.0000E+00  0.0000E+00  0.0000E+00  0.0000E+00  0.0000E+00  0.0000E+00  0.0000E+00  0.0000E+00  0.0000E+00  0.0000E+00
    -37.414  0.0000E+00  0.0000E+00  0.0000E+00  0.0000E+00  0.0000E+00  0.0000E+00  0.0000E+00  0.0000E+00  0.0000E+00  0.0000E+00  0.0000E+00  0.0000E+00  0.0000E+00  0.0000E+00  0.0000E+00  0.0000E+00  0.0000E+00  0.0000E+00
    -37.241  0.0000E+00  0.0000E+00  0.0000E+00  0.0000E+00  0.0000E+00  0.0000E+00  0.0000E+00  0.0000E+00  0.0000E+00  0.0000E+00  0.0000E+00  0.0000E+00  0.0000E+00  0.0000E+00  0.0000E+00  0.0000E+00  0.0000E+00  0.0000E+00
    -37.068  0.0000E+00  0.0000E+00  0.0000E+00  0.0000E+00  0.0000E+00  0.0000E+00  0.0000E+00  0.0000E+00  0.0000E+00  0.0000E+00  0.0000E+00  0.0000E+00  0.0000E+00  0.0000E+00  0.0000E+00  0.0000E+00  0.0000E+00  0.0000E+00
    -36.895  0.0000E+00  0.0000E+00  0.0000E+00  0.0000E+00  0.0000E+00  0.0000E+00  0.0000E+00  0.0000E+00  0.0000E+00  0.0000E+00  0.0000E+00  0.0000E+00  0.0000E+00  0.0000E+00  0.0000E+00  0.0000E+00  0.0000E+00  0.0000E+00
    -36.722  0.0000E+00  0.0000E+00  0.0000E+00  0.0000E+00  0.0000E+00  0.0000E+00  0.0000E+00  0.0000E+00  0.0000E+00  0.0000E+00  0.0000E+00  0.0000E+00  0.0000E+00  0.0000E+00  0.0000E+00  0.0000E+00  0.0000E+00  0.0000E+00
    -36.549  0.0000E+00  0.0000E+00  0.0000E+00  0.0000E+00  0.0000E+00  0.0000E+00  0.0000E+00  0.0000E+00  0.0000E+00  0.0000E+00  0.0000E+00  0.0000E+00  0.0000E+00  0.0000E+00  0.0000E+00  0.0000E+00  0.0000E+00  0.0000E+00
    -36.376  0.0000E+00  0.0000E+00  0.0000E+00  0.0000E+00  0.0000E+00  0.0000E+00  0.0000E+00  0.0000E+00  0.0000E+00  0.0000E+00  0.0000E+00  0.0000E+00  0.0000E+00  0.0000E+00  0.0000E+00  0.0000E+00  0.0000E+00  0.0000E+00
    -36.203  0.0000E+00  0.0000E+00  0.0000E+00  0.0000E+00  0.0000E+00  0.0000E+00  0.0000E+00  0.0000E+00  0.0000E+00  0.0000E+00  0.0000E+00  0.0000E+00  0.0000E+00  0.0000E+00  0.0000E+00  0.0000E+00  0.0000E+00  0.0000E+00
    -36.030  0.0000E+00  0.0000E+00  0.0000E+00  0.0000E+00  0.0000E+00  0.0000E+00  0.0000E+00  0.0000E+00  0.0000E+00  0.0000E+00  0.0000E+00  0.0000E+00  0.0000E+00  0.0000E+00  0.0000E+00  0.0000E+00  0.0000E+00  0.0000E+00
    -35.857  0.0000E+00  0.0000E+00  0.0000E+00  0.0000E+00  0.0000E+00  0.0000E+00  0.0000E+00  0.0000E+00  0.0000E+00  0.0000E+00  0.0000E+00  0.0000E+00  0.0000E+00  0.0000E+00  0.0000E+00  0.0000E+00  0.0000E+00  0.0000E+00
    -35.684  0.0000E+00  0.0000E+00  0.0000E+00  0.0000E+00  0.0000E+00  0.0000E+00  0.0000E+00  0.0000E+00  0.0000E+00  0.0000E+00  0.0000E+00  0.0000E+00  0.0000E+00  0.0000E+00  0.0000E+00  0.0000E+00  0.0000E+00  0.0000E+00
    -35.511  0.0000E+00  0.0000E+00  0.0000E+00  0.0000E+00  0.0000E+00  0.0000E+00  0.0000E+00  0.0000E+00  0.0000E+00  0.0000E+00  0.0000E+00  0.0000E+00  0.0000E+00  0.0000E+00  0.0000E+00  0.0000E+00  0.0000E+00  0.0000E+00
    -35.338  0.0000E+00  0.0000E+00  0.0000E+00  0.0000E+00  0.0000E+00  0.0000E+00  0.0000E+00  0.0000E+00  0.0000E+00  0.0000E+00  0.0000E+00  0.0000E+00  0.0000E+00  0.0000E+00  0.0000E+00  0.0000E+00  0.0000E+00  0.0000E+00