    3    3    1    2
  0.7845083E+02  0.3310000E-09  0.3310000E-09  0.2480460E-08  0.5000000E-15
  1.000000000000000E-004
  CAR 
 VSe2                                    
     23    120     20
 
  0.0000000E+00  0.0000000E+00  0.0000000E+00  0.8333333E-02
    1      -41.535855    -39.308134   1.000000   1.000000
    2      -41.535792    -39.308110   1.000000   1.000000
    3      -41.471327    -38.907418   1.000000   1.000000
    4      -16.804377    -16.896569   1.000000   1.000000
    5      -15.323306    -15.161071   1.000000   1.000000
    6       -7.991258     -7.317282   1.000000   1.000000
    7       -4.882236     -4.202944   1.000000   1.000000
    8       -4.882197     -3.755108   1.000000   1.000000
    9       -4.599287     -3.755094   1.000000   1.000000
   10       -3.976995     -2.166876   1.000000   0.000000
   11       -3.273363     -0.322617   1.000000   0.000000
   12       -3.273354     -0.322615   1.000000   0.000000
   13       -2.266309     -0.100537   0.000000   0.000000
   14       -0.480552     -0.100482   0.000000   0.000000
   15       -0.480551     -0.037664   0.000000   0.000000
   16        0.407101      1.616598   0.000000   0.000000
   17        0.407111      1.650337   0.000000   0.000000
   18        0.751856      1.650384   0.000000   0.000000
   19        2.399698      2.471965   0.000000   0.000000
   20        2.665962      2.734525   0.000000   0.000000
 
  0.0000000E+00  0.1282051E-01  0.0000000E+00  0.8333333E-02
    1      -41.536046    -39.308376   1.000000   1.000000
    2      -41.535940    -39.308252   1.000000   1.000000
    3      -41.471283    -38.907373   1.000000   1.000000
    4      -16.802486    -16.894718   1.000000   1.000000
    5      -15.321457    -15.159209   1.000000   1.000000
    6       -7.988481     -7.314805   1.000000   1.000000
    7       -4.891903     -4.201369   1.000000   1.000000
    8       -4.882061     -3.764636   1.000000   1.000000
    9       -4.595446     -3.756019   1.000000   1.000000
   10       -3.974905     -2.163144   1.000000   0.000000
   11       -3.273459     -0.338424   1.000000   0.000000
   12       -3.272797     -0.325547   1.000000   0.000000
   13       -2.265789     -0.103858   0.000000   0.000000
   14       -0.494905     -0.101318   0.000000   0.000000
   15       -0.483448     -0.036793   0.000000   0.000000
   16        0.395956      1.617135   0.000000   0.000000
   17        0.405788      1.647925   0.000000   0.000000
   18        0.755474      1.651790   0.000000   0.000000
   19        2.403505      2.475790   0.000000   0.000000
   20        2.669035      2.737699   0.000000   0.000000
 
  0.0000000E+00  0.2564103E-01  0.0000000E+00  0.8333333E-02
    1      -41.536574    -39.308960   1.000000   1.000000
    2      -41.536071    -39.308390   1.000000   1.000000
    3      -41.471202    -38.907286   1.000000   1.000000
    4      -16.796814    -16.889168   1.000000   1.000000
    5      -15.315910    -15.153621   1.000000   1.000000
    6       -7.980150     -7.307381   1.000000   1.000000
    7       -4.919658     -4.196807   1.000000   1.000000
    8       -4.881587     -3.792726   1.000000   1.000000
    9       -4.584804     -3.758735   1.000000   1.000000
   10       -3.968971     -2.152249   1.000000   0.000000
   11       -3.273710     -0.384652   1.000000   0.000000
   12       -3.271050     -0.334272   1.000000   0.000000
   13       -2.264323     -0.113903   0.000000   0.000000
   14       -0.537500     -0.103618   0.000000   0.000000
   15       -0.492079     -0.034922   0.000000   0.000000
   16        0.363562      1.612971   0.000000   0.000000
   17        0.401859      1.647179   0.000000   0.000000
   18        0.766130      1.656089   0.000000   0.000000
   19        2.414775      2.487057   0.000000   0.000000
   20        2.678229      2.747199   0.000000   0.000000
 
  0.0000000E+00  0.3846154E-01  0.0000000E+00  0.8333333E-02
    1      -41.537304    -39.309749   1.000000   1.000000
    2      -41.536226    -39.308552   1.000000   1.000000
    3      -41.471060    -38.907121   1.000000   1.000000
    4      -16.787378    -16.879934   1.000000   1.000000
    5      -15.306677    -15.144320   1.000000   1.000000
    6       -7.966292     -7.295038   1.000000   1.000000
    7       -4.962802     -4.189872   1.000000   1.000000
    8       -4.880819     -3.837793   1.000000   1.000000
    9       -4.569115     -3.763250   1.000000   1.000000
   10       -3.960171     -2.135020   1.000000   0.000000
   11       -3.274008     -0.458621   1.000000   0.000000
   12       -3.267960     -0.348667   1.000000   0.000000
   13       -2.262160     -0.130675   0.000000   0.000000
   14       -0.607025     -0.107227   0.000000   0.000000
   15       -0.506331     -0.033299   0.000000   0.000000
   16        0.312651      1.596158   0.000000   0.000000
   17        0.395354      1.658219   0.000000   0.000000
   18        0.783422      1.663075   0.000000   0.000000
   19        2.433109      2.505253   0.000000   0.000000
   20        2.693482      2.762968   0.000000   0.000000
 
  0.0000000E+00  0.5128205E-01  0.0000000E+00  0.8333333E-02
    1      -41.538377    -39.310916   1.000000   1.000000
    2      -41.536501    -39.308853   1.000000   1.000000
    3      -41.470853    -38.906885   1.000000   1.000000
    4      -16.774205    -16.867043   1.000000   1.000000
    5      -15.293787    -15.131334   1.000000   1.000000
    6       -7.946951     -7.277825   1.000000   1.000000
    7       -5.018697     -4.182244   1.000000   1.000000
    8       -4.879912     -3.896803   1.000000   1.000000
    9       -4.549755     -3.769597   1.000000   1.000000
   10       -3.949878     -2.112648   1.000000   0.000000
   11       -3.274231     -0.557424   1.000000   0.000000
   12       -3.263371     -0.368539   1.000000   0.000000
   13       -2.259759     -0.154321   0.000000   0.000000
   14       -0.701514     -0.111884   0.000000   0.000000
   15       -0.526029     -0.032606   0.000000   0.000000
   16        0.246925      1.571754   0.000000   0.000000
   17        0.386274      1.672418   0.000000   0.000000
   18        0.807034      1.678877   0.000000   0.000000
   19        2.457999      2.529762   0.000000   0.000000
   20        2.714701      2.784922   0.000000   0.000000
 
  0.0000000E+00  0.6410256E-01  0.0000000E+00  0.8333333E-02
    1      -41.539724    -39.312380   1.000000   1.000000
    2      -41.536801    -39.309174   1.000000   1.000000
    3      -41.470559    -38.906547   1.000000   1.000000
    4      -16.757336    -16.850535   1.000000   1.000000
    5      -15.277271    -15.114696   1.000000   1.000000
    6       -7.922181     -7.255808   1.000000   1.000000
    7       -5.085267     -4.178957   1.000000   1.000000
    8       -4.878939     -3.963124   1.000000   1.000000
    9       -4.527413     -3.777761   1.000000   1.000000
   10       -3.939520     -2.086492   1.000000   0.000000
   11       -3.274141     -0.678231   1.000000   0.000000
   12       -3.257071     -0.393608   1.000000   0.000000
   13       -2.257731     -0.184832   0.000000   0.000000
   14       -0.818473     -0.117176   0.000000   0.000000
   15       -0.550910     -0.032895   0.000000   0.000000
   16        0.170547      1.545130   0.000000   0.000000
   17        0.374694      1.683777   0.000000   0.000000
   18        0.836812      1.706885   0.000000   0.000000
   19        2.488964      2.560056   0.000000   0.000000
   20        2.741780      2.812964   0.000000   0.000000
 
  0.0000000E+00  0.7692308E-01  0.0000000E+00  0.8333333E-02
    1      -41.541330    -39.314126   1.000000   1.000000
    2      -41.537148    -39.309544   1.000000   1.000000
    3      -41.470200    -38.906133   1.000000   1.000000
    4      -16.736823    -16.830460   1.000000   1.000000
    5      -15.257174    -15.094449   1.000000   1.000000
    6       -7.892065     -7.229077   1.000000   1.000000
    7       -5.160942     -4.195849   1.000000   1.000000
    8       -4.878076     -4.019273   1.000000   1.000000
    9       -4.502323     -3.787756   1.000000   1.000000
   10       -3.930412     -2.057937   1.000000   0.000000
   11       -3.273499     -0.818251   1.000000   0.000000
   12       -3.248908     -0.423550   1.000000   0.000000
   13       -2.256887     -0.221941   0.000000   0.000000
   14       -0.955124     -0.122659   0.000000   0.000000
   15       -0.580668     -0.033953   0.000000   0.000000
   16        0.087756      1.519741   0.000000   0.000000
   17        0.360657      1.696700   0.000000   0.000000
   18        0.872706      1.741608   0.000000   0.000000
   19        2.525631      2.595769   0.000000   0.000000
   20        2.774608      2.846994   0.000000   0.000000
 
  0.0000000E+00  0.8974359E-01  0.0000000E+00  0.8333333E-02
    1      -41.543263    -39.316234   1.000000   1.000000
    2      -41.537637    -39.310077   1.000000   1.000000
    3      -41.469848    -38.905726   1.000000   1.000000
    4      -16.712734    -16.806885   1.000000   1.000000
    5      -15.233557    -15.070653   1.000000   1.000000
    6       -7.856709     -7.197751   1.000000   1.000000
    7       -5.244575     -4.257400   1.000000   1.000000
    8       -4.877518     -4.039229   1.000000   1.000000
    9       -4.474527     -3.799596   1.000000   1.000000
   10       -3.923608     -2.028337   1.000000   0.000000
   11       -3.272032     -0.974693   1.000000   0.000000
   12       -3.238885     -0.458014   1.000000   0.000000
   13       -2.258238     -0.265175   0.000000   0.000000
   14       -1.108568     -0.127842   0.000000   0.000000
   15       -0.614958     -0.035467   0.000000   0.000000
   16        0.002631      1.498051   0.000000   0.000000
   17        0.344228      1.710709   0.000000   0.000000
   18        0.914707      1.782825   0.000000   0.000000
   19        2.567751      2.636693   0.000000   0.000000
   20        2.813078      2.886915   0.000000   0.000000
 
  0.0000000E+00  0.1025641E+00  0.0000000E+00  0.8333333E-02
    1      -41.545421    -39.318587   1.000000   1.000000
    2      -41.538161    -39.310644   1.000000   1.000000
    3      -41.469436    -38.905244   1.000000   1.000000
    4      -16.685144    -16.779884   1.000000   1.000000
    5      -15.206485    -15.043373   1.000000   1.000000
    6       -7.816232     -7.161962   1.000000   1.000000
    7       -5.335185     -4.356957   1.000000   1.000000
    8       -4.877443     -4.028149   1.000000   1.000000
    9       -4.444007     -3.813255   1.000000   1.000000
   10       -3.919769     -1.999062   1.000000   0.000000
   11       -3.269394     -1.144649   1.000000   0.000000
   12       -3.227025     -0.496587   1.000000   0.000000
   13       -2.262960     -0.313744   0.000000   0.000000
   14       -1.275833     -0.132196   0.000000   0.000000
   15       -0.653372     -0.037030   0.000000   0.000000
   16       -0.080985      1.481830   0.000000   0.000000
   17        0.325485      1.725324   0.000000   0.000000
   18        0.962809      1.830423   0.000000   0.000000
   19        2.615183      2.682739   0.000000   0.000000
   20        2.857094      2.932637   0.000000   0.000000
 
  0.0000000E+00  0.1153846E+00  0.0000000E+00  0.8333333E-02
    1      -41.547860    -39.321255   1.000000   1.000000
    2      -41.538712    -39.311238   1.000000   1.000000
    3      -41.469012    -38.904741   1.000000   1.000000
    4      -16.654142    -16.749541   1.000000   1.000000
    5      -15.176037    -15.012688   1.000000   1.000000
    6       -7.770786     -7.121881   1.000000   1.000000
    7       -5.432024     -4.476558   1.000000   1.000000
    8       -4.878057     -4.002685   1.000000   1.000000
    9       -4.410775     -3.828713   1.000000   1.000000
   10       -3.919249     -1.971812   1.000000   0.000000
   11       -3.265228     -1.324894   1.000000   0.000000
   12       -3.213657     -0.538844   1.000000   0.000000
   13       -2.272476     -0.366767   0.000001   0.000000
   14       -1.453883     -0.135195   0.000000   0.000000
   15       -0.695486     -0.038214   0.000000   0.000000
   16       -0.159636      1.472151   0.000000   0.000000
   17        0.304525      1.740086   0.000000   0.000000
   18        1.016998      1.884320   0.000000   0.000000
   19        2.667857      2.733881   0.000000   0.000000
   20        2.906560      2.984074   0.000000   0.000000
 
  0.0000000E+00  0.1282051E+00  0.0000000E+00  0.8333333E-02
    1      -41.550586    -39.324246   1.000000   1.000000
    2      -41.539269    -39.311832   1.000000   1.000000
    3      -41.468538    -38.904176   1.000000   1.000000
    4      -16.619833    -16.715960   1.000000   1.000000
    5      -15.142306    -14.978690   1.000000   1.000000
    6       -7.720551     -7.077705   1.000000   1.000000
    7       -5.534410     -4.608276   1.000000   1.000000
    8       -4.879567     -3.969529   1.000000   1.000000
    9       -4.374892     -3.845929   1.000000   1.000000
   10       -3.922058     -1.949816   1.000000   0.000000
   11       -3.259182     -1.510707   1.000000   0.000000
   12       -3.199267     -0.584343   1.000000   0.000000
   13       -2.288596     -0.423204   0.000009   0.000000
   14       -1.639325     -0.136357   0.000000   0.000000
   15       -0.740852     -0.038522   0.000000   0.000000
   16       -0.230287      1.469578   0.000000   0.000000
   17        0.281435      1.754542   0.000000   0.000000
   18        1.077245      1.944435   0.000000   0.000000
   19        2.725744      2.790130   0.000000   0.000000
   20        2.961387      3.041145   0.000000   0.000000
 
  0.0000000E+00  0.1410256E+00  0.0000000E+00  0.8333333E-02
    1      -41.553441    -39.327375   1.000000   1.000000
    2      -41.539901    -39.312510   1.000000   1.000000
    3      -41.467993    -38.903526   1.000000   1.000000
    4      -16.582331    -16.679251   1.000000   1.000000
    5      -15.105393    -14.941480   1.000000   1.000000
    6       -7.665735     -7.029671   1.000000   1.000000
    7       -5.641724     -4.748638   1.000000   1.000000
    8       -4.882175     -3.931019   1.000000   1.000000
    9       -4.336494     -3.864857   1.000000   1.000000
   10       -3.927937     -1.944659   1.000000   0.000000
   11       -3.250913     -1.689083   1.000000   0.000000
   12       -3.184529     -0.632643   1.000000   0.000000
   13       -2.314286     -0.481958   0.000178   0.000000
   14       -1.827521     -0.135225   0.000000   0.000000
   15       -0.789026     -0.037417   0.000000   0.000000
   16       -0.290412      1.474272   0.000000   0.000000
   17        0.256314      1.768283   0.000000   0.000000
   18        1.143506      2.010679   0.000000   0.000000
   19        2.788832      2.851508   0.000000   0.000000
   20        3.021475      3.103761   0.000000   0.000000
 
  0.0000000E+00  0.1538462E+00  0.0000000E+00  0.8333333E-02
    1      -41.556541    -39.330780   1.000000   1.000000
    2      -41.540641    -39.313312   1.000000   1.000000
    3      -41.467493    -38.902921   1.000000   1.000000
    4      -16.541769    -16.639546   1.000000   1.000000
    5      -15.065420    -14.901180   1.000000   1.000000
    6       -7.606627     -6.978086   1.000000   1.000000
    7       -5.753401     -4.895584   1.000000   1.000000
    8       -4.886104     -3.888181   1.000000   1.000000
    9       -4.295843     -3.885442   1.000000   1.000000
   10       -3.936429     -2.012198   1.000000   0.000000
   11       -3.240147     -1.802852   1.000000   0.000000
   12       -3.170454     -0.683294   1.000000   0.000000
   13       -2.356398     -0.541955   0.008666   0.000000
   14       -2.009693     -0.131454   0.000000   0.000000
   15       -0.839554     -0.034399   0.000000   0.000000
   16       -0.338146      1.486065   0.000000   0.000000
   17        0.229233      1.780915   0.000000   0.000000
   18        1.215720      2.082949   0.000000   0.000000
   19        2.857107      2.918026   0.000000   0.000000
   20        3.086711      3.171828   0.000000   0.000000
 
  0.0000000E+00  0.1666667E+00  0.0000000E+00  0.8333333E-02
    1      -41.559839    -39.334409   1.000000   1.000000
    2      -41.541396    -39.314127   1.000000   1.000000
    3      -41.466909    -38.902219   1.000000   1.000000
    4      -16.498294    -16.596988   1.000000   1.000000
    5      -15.022521    -14.857921   1.000000   1.000000
    6       -7.543519     -6.923291   1.000000   1.000000
    7       -5.868863     -5.047540   1.000000   1.000000
    8       -4.891463     -3.907567   1.000000   1.000000
    9       -4.253324     -3.841564   1.000000   1.000000
   10       -3.946789     -2.183333   1.000000   0.000000
   11       -3.226553     -1.819872   1.000000   0.000000
   12       -3.158304     -0.735838   1.000000   0.000000
   13       -2.433383     -0.602144   0.419899   0.000000
   14       -2.164852     -0.124685   0.000000   0.000000
   15       -0.891973     -0.028919   0.000000   0.000000
   16       -0.372288      1.504643   0.000000   0.000000
   17        0.200317      1.792150   0.000000   0.000000
   18        1.293815      2.161134   0.000000   0.000000
   19        2.930537      2.989685   0.000000   0.000000
   20        3.156967      3.245242   0.000000   0.000000
 
  0.0000000E+00  0.1794872E+00  0.0000000E+00  0.8333333E-02
    1      -41.563235    -39.338144   1.000000   1.000000
    2      -41.542221    -39.315023   1.000000   1.000000
    3      -41.466260    -38.901438   1.000000   1.000000
    4      -16.452071    -16.551740   1.000000   1.000000
    5      -14.976848    -14.811857   1.000000   1.000000
    6       -7.476822     -6.865747   1.000000   1.000000
    7       -5.987494     -5.203108   1.000000   1.000000
    8       -4.898359     -3.931115   1.000000   1.000000
    9       -4.209647     -3.791575   1.000000   1.000000
   10       -3.958033     -2.385913   1.000000   0.061198
   11       -3.209881     -1.811120   1.000000   0.000000
   12       -3.149920     -0.789843   1.000000   0.000000
   13       -2.568475     -0.661555   0.999852   0.000000
   14       -2.266339     -0.114651   0.000000   0.000000
   15       -0.945850     -0.020520   0.000000   0.000000
   16       -0.392361      1.529591   0.000000   0.000000
   17        0.169664      1.801723   0.000000   0.000000
   18        1.377697      2.245104   0.000000   0.000000
   19        3.009060      3.066459   0.000000   0.000000
   20        3.232077      3.323881   0.000000   0.000000
 
  0.0000000E+00  0.1923077E+00  0.0000000E+00  0.8333333E-02
    1      -41.566789    -39.342055   1.000000   1.000000
    2      -41.543127    -39.316009   1.000000   1.000000
    3      -41.465652    -38.900700   1.000000   1.000000
    4      -16.403283    -16.503979   1.000000   1.000000
    5      -14.928569    -14.763155   1.000000   1.000000
    6       -7.407071     -6.806065   1.000000   1.000000
    7       -6.108608     -5.360928   1.000000   1.000000
    8       -4.906875     -3.955954   1.000000   1.000000
    9       -4.166163     -3.738555   1.000000   1.000000
   10       -3.968581     -2.596453   1.000000   0.999995
   11       -3.190002     -1.798962   1.000000   0.000000
   12       -3.148741     -0.844879   1.000000   0.000000
   13       -2.743901     -0.719315   1.000000   0.000000
   14       -2.326584     -0.101199   0.000635   0.000000
   15       -1.000754     -0.008838   0.000000   0.000000
   16       -0.398564      1.560431   0.000000   0.000000
   17        0.137353      1.809384   0.000000   0.000000
   18        1.467258      2.334715   0.000000   0.000000
   19        3.092561      3.148292   0.000000   0.000000
   20        3.311830      3.407601   0.000000   0.000000
 
  0.0000000E+00  0.2051282E+00  0.0000000E+00  0.8333333E-02
    1      -41.570471    -39.346112   1.000000   1.000000
    2      -41.543920    -39.316861   1.000000   1.000000
    3      -41.465001    -38.899905   1.000000   1.000000
    4      -16.352131    -16.453901   1.000000   1.000000
    5      -14.877871    -14.712000   1.000000   1.000000
    6       -7.334975     -6.745109   1.000000   1.000000
    7       -6.231338     -5.519483   1.000000   1.000000
    8       -4.916986     -3.981901   1.000000   1.000000
    9       -4.125787     -3.682821   1.000000   1.000000
   10       -3.975307     -2.809463   1.000000   1.000000
   11       -3.166719     -1.787729   1.000000   0.000000
   12       -3.165078     -0.900516   1.000000   0.000000
   13       -2.923652     -0.774659   1.000000   0.000000
   14       -2.368984     -0.084157   0.021505   0.000000
   15       -1.056250      0.006415   0.000000   0.000000
   16       -0.391614      1.596713   0.000000   0.000000
   17        0.103529      1.815017   0.000000   0.000000
   18        1.562371      2.429809   0.000000   0.000000
   19        3.180840      3.235081   0.000000   0.000000
   20        3.395949      3.496228   0.000000   0.000000
 
  0.0000000E+00  0.2179487E+00  0.0000000E+00  0.8333333E-02
    1      -41.574167    -39.350181   1.000000   1.000000
    2      -41.544796    -39.317808   1.000000   1.000000
    3      -41.464341    -38.899098   1.000000   1.000000
    4      -16.298831    -16.401722   1.000000   1.000000
    5      -14.824962    -14.658602   1.000000   1.000000
    6       -7.261630     -6.684250   1.000000   1.000000
    7       -6.354482     -5.676846   1.000000   1.000000
    8       -4.928686     -4.008806   1.000000   1.000000
    9       -4.094865     -3.624708   1.000000   1.000000
   10       -3.971895     -3.022575   1.000000   1.000000
   11       -3.242320     -1.778578   1.000000   0.000000
   12       -3.140033     -0.956382   1.000000   0.000000
   13       -3.053550     -0.826978   1.000000   0.000000
   14       -2.401759     -0.063497   0.136408   0.000000
   15       -1.111968      0.025382   0.000000   0.000000
   16       -0.372594      1.638008   0.000000   0.000000
   17        0.068273      1.818465   0.000000   0.000000
   18        1.662887      2.530210   0.000000   0.000000
   19        3.273558      3.326664   0.000000   0.000000
   20        3.484058      3.589553   0.000000   0.000000
 
  0.0000000E+00  0.2307692E+00  0.0000000E+00  0.8333333E-02
    1      -41.577923    -39.354318   1.000000   1.000000
    2      -41.545623    -39.318696   1.000000   1.000000
    3      -41.463615    -38.898210   1.000000   1.000000
    4      -16.243631    -16.347682   1.000000   1.000000
    5      -14.770077    -14.603197   1.000000   1.000000
    6       -7.188925     -6.625966   1.000000   1.000000
    7       -6.476085     -5.830086   1.000000   1.000000
    8       -4.941856     -4.036449   1.000000   1.000000
    9       -4.080955     -3.564590   1.000000   1.000000
   10       -3.951103     -3.234255   1.000000   1.000000
   11       -3.407414     -1.771737   1.000000   0.000000
   12       -3.109942     -1.012088   1.000000   0.000000
   13       -3.102168     -0.875775   1.000000   0.000000
   14       -2.426514     -0.039219   0.345900   0.000000
   15       -1.167520      0.048077   0.000000   0.000000
   16       -0.342810      1.683911   0.000000   0.000000
   17        0.031697      1.819650   0.000000   0.000000
   18        1.768628      2.635719   0.000000   0.000000
   19        3.370104      3.422784   0.000000   0.000000
   20        3.575635      3.687313   0.000000   0.000000
 
  0.0000000E+00  0.2435897E+00  0.0000000E+00  0.8333333E-02
    1      -41.581707    -39.358485   1.000000   1.000000
    2      -41.546497    -39.319639   1.000000   1.000000
    3      -41.462910    -38.897345   1.000000   1.000000
    4      -16.186795    -16.292041   1.000000   1.000000
    5      -14.713469    -14.546035   1.000000   1.000000
    6       -7.120879     -6.575537   1.000000   1.000000
    7       -6.592114     -5.973560   1.000000   1.000000
    8       -4.956399     -4.064654   1.000000   1.000000
    9       -4.081796     -3.503444   1.000000   1.000000
   10       -3.916739     -3.442717   1.000000   1.000000
   11       -3.598072     -1.767029   1.000000   0.000000
   12       -3.127754     -1.067294   1.000000   0.000000
   13       -3.076571     -0.920719   1.000000   0.000000
   14       -2.443388     -0.011409   0.532220   0.000000
   15       -1.222569      0.074361   0.000000   0.000000
   16       -0.303674      1.734026   0.000000   0.000000
   17       -0.006096      1.818503   0.000000   0.000000
   18        1.879377      2.746101   0.000000   0.000000
   19        3.469303      3.523045   0.000000   0.000000
   20        3.669917      3.789184   0.000000   0.000000
 
  0.0000000E+00  0.2564103E+00  0.0000000E+00  0.8333333E-02
    1      -41.585548    -39.362721   1.000000   1.000000
    2      -41.547368    -39.320578   1.000000   1.000000
    3      -41.462223    -38.896502   1.000000   1.000000
    4      -16.128609    -16.235083   1.000000   1.000000
    5      -14.655418    -14.487398   1.000000   1.000000
    6       -7.068000     -6.545673   1.000000   1.000000
    7       -6.692070     -6.094262   1.000000   1.000000
    8       -4.972138     -4.093203   1.000000   1.000000
    9       -4.089913     -3.649344   1.000000   1.000000
   10       -3.889211     -3.439242   1.000000   1.000000
   11       -3.778123     -1.763983   1.000000   0.000000
   12       -3.151115     -1.121665   1.000000   0.000000
   13       -3.040082     -0.961592   1.000000   0.000000
   14       -2.452599      0.019802   0.633583   0.000000
   15       -1.276780      0.103970   0.000000   0.000000
   16       -0.256620      1.787970   0.000000   0.000000
   17       -0.044991      1.814997   0.000000   0.000000
   18        1.994866      2.861067   0.000000   0.000000
   19        3.568596      3.626813   0.000000   0.000000
   20        3.765726      3.894758   0.000000   0.000000
 
  0.0000000E+00  0.2692308E+00  0.0000000E+00  0.8333333E-02
    1      -41.589305    -39.366860   1.000000   1.000000
    2      -41.548218    -39.321491   1.000000   1.000000
    3      -41.461540    -38.895661   1.000000   1.000000
    4      -16.069381    -16.177107   1.000000   1.000000
    5      -14.596226    -14.427591   1.000000   1.000000
    6       -7.057479     -6.562364   1.000000   1.000000
    7       -6.748844     -6.166004   1.000000   1.000000
    8       -4.988873     -4.121870   1.000000   1.000000
    9       -4.106303     -3.850087   1.000000   1.000000
   10       -3.999376     -3.375480   1.000000   1.000000
   11       -3.810664     -1.761963   1.000000   0.000000
   12       -3.174490     -1.174891   1.000000   0.000000
   13       -3.000676     -0.998299   1.000000   0.000000
   14       -2.454858      0.054256   0.657362   0.000000
   15       -1.329845      0.136547   0.000000   0.000000
   16       -0.203045      1.809136   0.000000   0.000000
   17       -0.084859      1.845371   0.000000   0.000000
   18        2.114749      2.980263   0.000000   0.000000
   19        3.661400      3.733055   0.000000   0.000000
   20        3.861122      4.003535   0.000000   0.000000
 
  0.0000000E+00  0.2820513E+00  0.0000000E+00  0.8333333E-02
    1      -41.593040    -39.370977   1.000000   1.000000
    2      -41.549132    -39.322482   1.000000   1.000000
    3      -41.460853    -38.894817   1.000000   1.000000
    4      -16.009452    -16.118451   1.000000   1.000000
    5      -14.536230    -14.366949   1.000000   1.000000
    6       -7.113667     -6.641260   1.000000   1.000000
    7       -6.738239     -6.173040   1.000000   1.000000
    8       -5.006394     -4.150451   1.000000   1.000000
    9       -4.211885     -4.045316   1.000000   1.000000
   10       -4.086489     -3.311311   1.000000   1.000000
   11       -3.774312     -1.760230   1.000000   0.000000
   12       -3.196240     -1.226698   1.000000   0.000000
   13       -2.958643     -1.030886   1.000000   0.000000
   14       -2.451325      0.091715   0.619948   0.000000
   15       -1.381492      0.171612   0.000000   0.000000
   16       -0.144357      1.800947   0.000000   0.000000
   17       -0.125568      1.905781   0.000000   0.000000
   18        2.238563      3.103211   0.000000   0.000000
   19        3.727670      3.839999   0.000000   0.000000
   20        3.952846      4.114918   0.000000   0.000000
 
  0.0000000E+00  0.2948718E+00  0.0000000E+00  0.8333333E-02
    1      -41.596710    -39.375020   1.000000   1.000000
    2      -41.550021    -39.323444   1.000000   1.000000
    3      -41.460207    -38.894019   1.000000   1.000000
    4      -15.949186    -16.059471   1.000000   1.000000
    5      -14.475790    -14.305838   1.000000   1.000000
    6       -7.210859     -6.758823   1.000000   1.000000
    7       -6.686164     -6.138916   1.000000   1.000000
    8       -5.024458     -4.233932   1.000000   1.000000
    9       -4.390303     -4.178713   1.000000   1.000000
   10       -4.096986     -3.247336   1.000000   1.000000
   11       -3.739004     -1.757976   1.000000   0.000000
   12       -3.213421     -1.276810   1.000000   0.000000
   13       -2.914315     -1.059413   1.000000   0.000000
   14       -2.443291      0.131904   0.531127   0.000000
   15       -1.431447      0.208627   0.000000   0.000000
   16       -0.166973      1.790469   0.000000   0.000000
   17       -0.081955      1.968687   0.000000   0.000000
   18        2.365634      3.229239   0.000000   0.000000
   19        3.717069      3.944450   0.000000   0.000000
   20        4.038162      4.228219   0.000000   0.000000
 
  0.0000000E+00  0.3076923E+00  0.0000000E+00  0.8333333E-02
    1      -41.600304    -39.378981   1.000000   1.000000
    2      -41.550876    -39.324369   1.000000   1.000000
    3      -41.459634    -38.893304   1.000000   1.000000
    4      -15.888979    -16.000556   1.000000   1.000000
    5      -14.415300    -14.244652   1.000000   1.000000
    6       -7.321863     -6.890527   1.000000   1.000000